8
Lattice="3.3136 0.0 0.0 0.0 7.678 0.0 0.0 0.0 4.3763" Properties=species:S:1:pos:R:3:forces:R:3 virial="4.3599124647 0.0 0.0 0.0 13.3015790718 0.0 0.0 0.0 14.58196621" energy=-39.378651296493665 stress="-0.0391581796823 -0.0 -0.0 -0.0 -0.119466991039 -0.0 -0.0 -0.0 -0.130966678253" free_energy=-41.28320567 pbc="T T T"
P        2.48520000       5.38665000       4.02569000       0.00000000       1.33568368      -0.02997712
P        0.82840000       5.38665000       2.53876000       0.00000000       1.33568368       0.02997712
P        0.82840000       7.53035000       1.83754000       0.00000000      -1.33568368      -0.02997712
P        2.48520000       7.53035000       0.35061000      -0.00000000      -1.33568368       0.02997712
P        0.82840000       3.69135000       0.35061000       0.00000000      -1.33568368       0.02997712
P        2.48520000       3.69135000       1.83754000      -0.00000000      -1.33568368      -0.02997712
P        0.82840000       1.54765000       4.02569000       0.00000000       1.33568368      -0.02997712
P        2.48520000       1.54765000       2.53876000       0.00000000       1.33568368       0.02997712
8
Lattice="3.3136 0.0 0.0 0.0 7.878 0.0 0.0 0.0 4.3763" Properties=species:S:1:pos:R:3:forces:R:3 virial="4.12793388055 0.0 -0.0 0.0 10.4688193835 0.0 -0.0 0.0 11.7121724895" energy=-40.03100448542742 stress="-0.0361334632202 -0.0 0.0 -0.0 -0.0916377808126 -0.0 0.0 -0.0 -0.102521349936" free_energy=-41.84506053 pbc="T T T"
P        2.48520000       5.48665000       4.02569000       0.00000000       1.08331408       0.02254968
P        0.82840000       5.48665000       2.53876000       0.00000000       1.08331408      -0.02254968
P        0.82840000       7.63035000       1.83754000       0.00000000      -1.08331408       0.02254968
P        2.48520000       7.63035000       0.35061000       0.00000000      -1.08331408      -0.02254968
P        0.82840000       3.69135000       0.35061000       0.00000000      -1.08331408      -0.02254968
P        2.48520000       3.69135000       1.83754000      -0.00000000      -1.08331408       0.02254968
P        0.82840000       1.54765000       4.02569000       0.00000000       1.08331408       0.02254968
P        2.48520000       1.54765000       2.53876000       0.00000000       1.08331408      -0.02254968
8
Lattice="3.3136 0.0 0.0 0.0 8.078 0.0 0.0 0.0 4.3763" Properties=species:S:1:pos:R:3:forces:R:3 virial="4.18756931009 0.0 -0.0 0.0 9.01254805409 0.0 -0.0 0.0 8.9059500155" energy=-40.55102428689396 stress="-0.0357479376845 -0.0 0.0 -0.0 -0.0769372355081 -0.0 0.0 -0.0 -0.076027242202" free_energy=-42.28460414 pbc="T T T"
P        2.48520000       5.58665000       4.02569000      -0.00000000       0.91407679       0.07360210
P        0.82840000       5.58665000       2.53876000       0.00000000       0.91407679      -0.07360210
P        0.82840000       7.73035000       1.83754000       0.00000000      -0.91407679       0.07360210
P        2.48520000       7.73035000       0.35061000       0.00000000      -0.91407679      -0.07360210
P        0.82840000       3.69135000       0.35061000       0.00000000      -0.91407679      -0.07360210
P        2.48520000       3.69135000       1.83754000      -0.00000000      -0.91407679       0.07360210
P        0.82840000       1.54765000       4.02569000       0.00000000       0.91407679       0.07360210
P        2.48520000       1.54765000       2.53876000       0.00000000       0.91407679      -0.07360210
8
Lattice="3.3136 0.0 0.0 0.0 8.278 0.0 0.0 0.0 4.3763" Properties=species:S:1:pos:R:3:forces:R:3 virial="3.15922895888 0.0 0.0 0.0 9.10807074115 0.0 0.0 0.0 6.23682124277" energy=-41.01734521906866 stress="-0.0263177351689 -0.0 -0.0 -0.0 -0.0758741442247 -0.0 -0.0 -0.0 -0.0519554017449" free_energy=-42.67806096 pbc="T T T"
P        2.48520000       5.68665000       4.02569000      -0.00000000       0.79839518       0.17771172
P        0.82840000       5.68665000       2.53876000       0.00000000       0.79839518      -0.17771172
P        0.82840000       7.83035000       1.83754000       0.00000000      -0.79839518       0.17771172
P        2.48520000       7.83035000       0.35061000       0.00000000      -0.79839518      -0.17771172
P        0.82840000       3.69135000       0.35061000       0.00000000      -0.79839518      -0.17771172
P        2.48520000       3.69135000       1.83754000       0.00000000      -0.79839518       0.17771172
P        0.82840000       1.54765000       4.02569000       0.00000000       0.79839518       0.17771172
P        2.48520000       1.54765000       2.53876000       0.00000000       0.79839518      -0.17771172
8
Lattice="3.3136 0.0 0.0 0.0 8.478 0.0 0.0 0.0 4.3763" Properties=species:S:1:pos:R:3:forces:R:3 virial="2.45544221022 0.0 0.0 0.0 9.22863482947 0.0 0.0 0.0 4.24640505153" energy=-41.44562112541094 stress="-0.0199723486066 -0.0 -0.0 -0.0 -0.0750648951175 -0.0 -0.0 -0.0 -0.0345398811102" free_energy=-43.04143929 pbc="T T T"
P        2.48520000       5.78665000       4.02569000      -0.00000000       0.71356872       0.22624757
P        0.82840000       5.78665000       2.53876000       0.00000000       0.71356872      -0.22624757
P        0.82840000       7.93035000       1.83754000       0.00000000      -0.71356872       0.22624757
P        2.48520000       7.93035000       0.35061000       0.00000000      -0.71356872      -0.22624757
P        0.82840000       3.69135000       0.35061000       0.00000000      -0.71356872      -0.22624757
P        2.48520000       3.69135000       1.83754000       0.00000000      -0.71356872       0.22624757
P        0.82840000       1.54765000       4.02569000       0.00000000       0.71356872       0.22624757
P        2.48520000       1.54765000       2.53876000       0.00000000       0.71356872      -0.22624757
8
Lattice="3.3136 0.0 0.0 0.0 8.678 0.0 0.0 0.0 4.3763" Properties=species:S:1:pos:R:3:forces:R:3 virial="1.87672778387 0.0 -0.0 0.0 8.38223040563 0.0 -0.0 0.0 2.83977903418" energy=-41.83280721056002 stress="-0.0149133245922 -0.0 0.0 -0.0 -0.0666089796933 -0.0 0.0 -0.0 -0.0225661637616" free_energy=-43.37002991 pbc="T T T"
P        2.48520000       5.88665000       4.02569000      -0.00000000       0.60221353       0.24593516
P        0.82840000       5.88665000       2.53876000       0.00000000       0.60221353      -0.24593516
P        0.82840000       8.03035000       1.83754000       0.00000000      -0.60221353       0.24593516
P        2.48520000       8.03035000       0.35061000      -0.00000000      -0.60221353      -0.24593516
P        0.82840000       3.69135000       0.35061000       0.00000000      -0.60221353      -0.24593516
P        2.48520000       3.69135000       1.83754000      -0.00000000      -0.60221353       0.24593516
P        0.82840000       1.54765000       4.02569000       0.00000000       0.60221353       0.24593516
P        2.48520000       1.54765000       2.53876000      -0.00000000       0.60221353      -0.24593516
8
Lattice="3.3136 0.0 0.0 0.0 8.878 0.0 0.0 0.0 4.3763" Properties=species:S:1:pos:R:3:forces:R:3 virial="1.5716767453 0.0 -0.0 0.0 7.45561966888 0.0 -0.0 0.0 1.86187495365" energy=-42.158114260285664 stress="-0.012207898771 -0.0 0.0 -0.0 -0.0579110497528 -0.0 0.0 -0.0 -0.0144619948258" free_energy=-43.64976101 pbc="T T T"
P        2.48520000       5.98665000       4.02569000      -0.00000000       0.51535101       0.22095698
P        0.82840000       5.98665000       2.53876000       0.00000000       0.51535101      -0.22095698
P        0.82840000       8.13035000       1.83754000       0.00000000      -0.51535101       0.22095698
P        2.48520000       8.13035000       0.35061000      -0.00000000      -0.51535101      -0.22095698
P        0.82840000       3.69135000       0.35061000       0.00000000      -0.51535101      -0.22095698
P        2.48520000       3.69135000       1.83754000      -0.00000000      -0.51535101       0.22095698
P        0.82840000       1.54765000       4.02569000       0.00000000       0.51535101       0.22095698
P        2.48520000       1.54765000       2.53876000      -0.00000000       0.51535101      -0.22095698
8
Lattice="3.3136 0.0 0.0 0.0 9.078 0.0 0.0 0.0 4.3763" Properties=species:S:1:pos:R:3:forces:R:3 virial="1.1549599724 0.0 -0.0 0.0 7.56896587967 0.0 -0.0 0.0 0.832181271823" energy=-42.45262104046176 stress="-0.00877343347638 -0.0 0.0 -0.0 -0.0574962078488 -0.0 0.0 -0.0 -0.00632150654835" free_energy=-43.90666118 pbc="T T T"
P        2.48520000       6.08665000       4.02569000      -0.00000000       0.47535560       0.17763443
P        0.82840000       6.08665000       2.53876000       0.00000000       0.47535560      -0.17763443
P        0.82840000       8.23035000       1.83754000       0.00000000      -0.47535560       0.17763443
P        2.48520000       8.23035000       0.35061000       0.00000000      -0.47535560      -0.17763443
P        0.82840000       3.69135000       0.35061000       0.00000000      -0.47535560      -0.17763443
P        2.48520000       3.69135000       1.83754000       0.00000000      -0.47535560       0.17763443
P        0.82840000       1.54765000       4.02569000       0.00000000       0.47535560       0.17763443
P        2.48520000       1.54765000       2.53876000       0.00000000       0.47535560      -0.17763443
8
Lattice="3.3136 0.0 0.0 0.0 9.278 0.0 0.0 0.0 4.3763" Properties=species:S:1:pos:R:3:forces:R:3 virial="0.878526907926 0.0 -0.0 0.0 6.72878482491 0.0 -0.0 0.0 0.173060330136" energy=-42.71816595408952 stress="-0.00652970456826 -0.0 0.0 -0.0 -0.0500121016371 -0.0 0.0 -0.0 -0.00128628140821" free_energy=-44.14322981 pbc="T T T"
P        2.48520000       6.18665000       4.02569000      -0.00000000       0.39130986       0.14137763
P        0.82840000       6.18665000       2.53876000       0.00000000       0.39130986      -0.14137763
P        0.82840000       8.33035000       1.83754000       0.00000000      -0.39130986       0.14137763
P        2.48520000       8.33035000       0.35061000       0.00000000      -0.39130986      -0.14137763
P        0.82840000       3.69135000       0.35061000       0.00000000      -0.39130986      -0.14137763
P        2.48520000       3.69135000       1.83754000      -0.00000000      -0.39130986       0.14137763
P        0.82840000       1.54765000       4.02569000       0.00000000       0.39130986       0.14137763
P        2.48520000       1.54765000       2.53876000      -0.00000000       0.39130986      -0.14137763
8
Lattice="3.3136 0.0 0.0 0.0 9.478 0.0 0.0 0.0 4.3763" Properties=species:S:1:pos:R:3:forces:R:3 virial="0.62631334581 0.0 -0.0 0.0 5.4022330187 0.0 -0.0 0.0 -0.1905542954" energy=-42.92333602537683 stress="-0.00455688212224 -0.0 0.0 -0.0 -0.0393051484976 -0.0 0.0 -0.0 0.00138642018062" free_energy=-44.33221643 pbc="T T T"
P        2.48520000       6.28665000       4.02569000      -0.00000000       0.28376773       0.11984643
P        0.82840000       6.28665000       2.53876000       0.00000000       0.28376773      -0.11984643
P        0.82840000       8.43035000       1.83754000       0.00000000      -0.28376773       0.11984643
P        2.48520000       8.43035000       0.35061000       0.00000000      -0.28376773      -0.11984643
P        0.82840000       3.69135000       0.35061000       0.00000000      -0.28376773      -0.11984643
P        2.48520000       3.69135000       1.83754000       0.00000000      -0.28376773       0.11984643
P        0.82840000       1.54765000       4.02569000       0.00000000       0.28376773       0.11984643
P        2.48520000       1.54765000       2.53876000       0.00000000       0.28376773      -0.11984643
8
Lattice="3.3136 0.0 0.0 0.0 9.678 0.0 0.0 0.0 4.3763" Properties=species:S:1:pos:R:3:forces:R:3 virial="0.341663215098 0.0 0.0 0.0 4.0434366309 0.0 0.0 0.0 -0.342377119407" energy=-43.07168767535653 stress="-0.00243447566851 -0.0 -0.0 -0.0 -0.0288109684043 -0.0 -0.0 -0.0 0.00243956249845" free_energy=-44.47357893 pbc="T T T"
P        2.48520000       6.38665000       4.02569000       0.00000000       0.18979024       0.10203614
P        0.82840000       6.38665000       2.53876000       0.00000000       0.18979024      -0.10203614
P        0.82840000       8.53035000       1.83754000       0.00000000      -0.18979024       0.10203614
P        2.48520000       8.53035000       0.35061000      -0.00000000      -0.18979024      -0.10203614
P        0.82840000       3.69135000       0.35061000       0.00000000      -0.18979024      -0.10203614
P        2.48520000       3.69135000       1.83754000       0.00000000      -0.18979024       0.10203614
P        0.82840000       1.54765000       4.02569000       0.00000000       0.18979024       0.10203614
P        2.48520000       1.54765000       2.53876000       0.00000000       0.18979024      -0.10203614
8
Lattice="3.3136 0.0 0.0 0.0 9.878 0.0 0.0 0.0 4.3763" Properties=species:S:1:pos:R:3:forces:R:3 virial="-0.0218033977337 0.0 -0.0 0.0 2.77887598721 0.0 -0.0 0.0 -0.488272908013" energy=-43.16858360453123 stress="0.000152211683053 -0.0 0.0 -0.0 -0.0193996090047 -0.0 0.0 -0.0 0.00340868162043" free_energy=-44.57130157 pbc="T T T"
P        2.48520000       6.48665000       4.02569000       0.00000000       0.11431932       0.08987057
P        0.82840000       6.48665000       2.53876000       0.00000000       0.11431932      -0.08987057
P        0.82840000       8.63035000       1.83754000       0.00000000      -0.11431932       0.08987057
P        2.48520000       8.63035000       0.35061000       0.00000000      -0.11431932      -0.08987057
P        0.82840000       3.69135000       0.35061000       0.00000000      -0.11431932      -0.08987057
P        2.48520000       3.69135000       1.83754000       0.00000000      -0.11431932       0.08987057
P        0.82840000       1.54765000       4.02569000       0.00000000       0.11431932       0.08987057
P        2.48520000       1.54765000       2.53876000       0.00000000       0.11431932      -0.08987057
8
Lattice="3.3136 0.0 0.0 0.0 10.078 0.0 0.0 0.0 4.3763" Properties=species:S:1:pos:R:3:forces:R:3 virial="-0.236846963396 0.0 -0.0 0.0 1.68325304812 0.0 -0.0 0.0 -0.498364212256" energy=-43.224761433142454 stress="0.00162063905208 -0.0 0.0 -0.0 -0.0115177563824 -0.0 0.0 -0.0 0.00341008595998" free_energy=-44.63250514 pbc="T T T"
P        2.48520000       6.58665000       4.02569000       0.00000000       0.05704780       0.07453361
P        0.82840000       6.58665000       2.53876000       0.00000000       0.05704780      -0.07453361
P        0.82840000       8.73035000       1.83754000       0.00000000      -0.05704780       0.07453361
P        2.48520000       8.73035000       0.35061000       0.00000000      -0.05704780      -0.07453361
P        0.82840000       3.69135000       0.35061000       0.00000000      -0.05704780      -0.07453361
P        2.48520000       3.69135000       1.83754000      -0.00000000      -0.05704780       0.07453361
P        0.82840000       1.54765000       4.02569000       0.00000000       0.05704780       0.07453361
P        2.48520000       1.54765000       2.53876000       0.00000000       0.05704780      -0.07453361
8
Lattice="3.3136 0.0 0.0 0.0 10.278 0.0 0.0 0.0 4.3763" Properties=species:S:1:pos:R:3:forces:R:3 virial="-0.375024056697 0.0 -0.0 0.0 0.800095291349 0.0 -0.0 0.0 -0.487685325132" energy=-43.25127578253618 stress="0.00251618950599 -0.0 0.0 -0.0 -0.00536816596144 -0.0 0.0 -0.0 0.0032720799517" free_energy=-44.66470907 pbc="T T T"
P        2.48520000       6.68665000       4.02569000       0.00000000       0.02131540       0.05482925
P        0.82840000       6.68665000       2.53876000       0.00000000       0.02131540      -0.05482925
P        0.82840000       8.83035000       1.83754000       0.00000000      -0.02131540       0.05482925
P        2.48520000       8.83035000       0.35061000       0.00000000      -0.02131540      -0.05482925
P        0.82840000       3.69135000       0.35061000       0.00000000      -0.02131540      -0.05482925
P        2.48520000       3.69135000       1.83754000      -0.00000000      -0.02131540       0.05482925
P        0.82840000       1.54765000       4.02569000       0.00000000       0.02131540       0.05482925
P        2.48520000       1.54765000       2.53876000      -0.00000000       0.02131540      -0.05482925
8
Lattice="3.3136 0.0 0.0 0.0 10.478 0.0 0.0 0.0 4.3763" Properties=species:S:1:pos:R:3:forces:R:3 virial="-0.469776969768 0.0 0.0 0.0 0.0507763699536 0.0 0.0 0.0 -0.426735458584" energy=-43.25875978929793 stress="0.00309176275305 -0.0 -0.0 -0.0 -0.000334176640109 -0.0 -0.0 -0.0 0.00280849186137" free_energy=-44.67465433 pbc="T T T"
P        2.48520000       6.78665000       4.02569000       0.00000000      -0.00365127       0.04243804
P        0.82840000       6.78665000       2.53876000       0.00000000      -0.00365127      -0.04243804
P        0.82840000       8.93035000       1.83754000       0.00000000       0.00365127       0.04243804
P        2.48520000       8.93035000       0.35061000      -0.00000000       0.00365127      -0.04243804
P        0.82840000       3.69135000       0.35061000       0.00000000       0.00365127      -0.04243804
P        2.48520000       3.69135000       1.83754000      -0.00000000       0.00365127       0.04243804
P        0.82840000       1.54765000       4.02569000       0.00000000      -0.00365127       0.04243804
P        2.48520000       1.54765000       2.53876000       0.00000000      -0.00365127      -0.04243804
8
Lattice="3.3136 0.0 0.0 0.0 10.678 0.0 0.0 0.0 4.3763" Properties=species:S:1:pos:R:3:forces:R:3 virial="-0.465565156545 0.0 0.0 0.0 -0.556949373022 0.0 0.0 0.0 -0.327304427437" energy=-43.25485222997743 stress="0.00300665353461 -0.0 -0.0 -0.0 0.00359681943001 -0.0 -0.0 -0.0 0.00211375572208" free_energy=-44.6671581 pbc="T T T"
P        2.48520000       6.88665000       4.02569000       0.00000000      -0.00545805       0.02766669
P        0.82840000       6.88665000       2.53876000       0.00000000      -0.00545805      -0.02766669
P        0.82840000       9.03035000       1.83754000       0.00000000       0.00545805       0.02766669
P        2.48520000       9.03035000       0.35061000       0.00000000       0.00545805      -0.02766669
P        0.82840000       3.69135000       0.35061000       0.00000000       0.00545805      -0.02766669
P        2.48520000       3.69135000       1.83754000       0.00000000       0.00545805       0.02766669
P        0.82840000       1.54765000       4.02569000       0.00000000      -0.00545805       0.02766669
P        2.48520000       1.54765000       2.53876000      -0.00000000      -0.00545805      -0.02766669
8
Lattice="3.3136 0.0 0.0 0.0 10.878 0.0 0.0 0.0 4.3763" Properties=species:S:1:pos:R:3:forces:R:3 virial="-0.483281238344 0.0 0.0 0.0 -1.04043364875 0.0 0.0 0.0 -0.230551426848" energy=-43.248272361241284 stress="0.00306368220349 -0.0 -0.0 -0.0 0.0065956585952 -0.0 -0.0 -0.0 0.00146154298446" free_energy=-44.64748827 pbc="T T T"
P        2.48520000       6.98665000       4.02569000       0.00000000       0.00300713       0.01178010
P        0.82840000       6.98665000       2.53876000       0.00000000       0.00300713      -0.01178010
P        0.82840000       9.13035000       1.83754000       0.00000000      -0.00300713       0.01178010
P        2.48520000       9.13035000       0.35061000       0.00000000      -0.00300713      -0.01178010
P        0.82840000       3.69135000       0.35061000       0.00000000      -0.00300713      -0.01178010
P        2.48520000       3.69135000       1.83754000      -0.00000000      -0.00300713       0.01178010
P        0.82840000       1.54765000       4.02569000       0.00000000       0.00300713       0.01178010
P        2.48520000       1.54765000       2.53876000       0.00000000       0.00300713      -0.01178010
8
Lattice="3.3136 0.0 0.0 0.0 11.078 0.0 0.0 0.0 4.3763" Properties=species:S:1:pos:R:3:forces:R:3 virial="-0.482177114099 0.0 0.0 0.0 -1.40050276089 0.0 0.0 0.0 -0.133401268728" energy=-43.24640774540888 stress="0.00300149804807 -0.0 -0.0 -0.0 0.00871797142629 -0.0 -0.0 -0.0 0.000830407823162" free_energy=-44.61933355 pbc="T T T"
P        2.48520000       7.08665000       4.02569000       0.00000000       0.02128279       0.00261165
P        0.82840000       7.08665000       2.53876000       0.00000000       0.02128279      -0.00261165
P        0.82840000       9.23035000       1.83754000       0.00000000      -0.02128279       0.00261165
P        2.48520000       9.23035000       0.35061000       0.00000000      -0.02128279      -0.00261165
P        0.82840000       3.69135000       0.35061000       0.00000000      -0.02128279      -0.00261165
P        2.48520000       3.69135000       1.83754000      -0.00000000      -0.02128279       0.00261165
P        0.82840000       1.54765000       4.02569000       0.00000000       0.02128279       0.00261165
P        2.48520000       1.54765000       2.53876000       0.00000000       0.02128279      -0.00261165
8
Lattice="3.3136 0.0 0.0 0.0 11.278 0.0 0.0 0.0 4.3763" Properties=species:S:1:pos:R:3:forces:R:3 virial="-0.428701900079 0.0 0.0 0.0 -1.65247414111 0.0 0.0 0.0 0.0032256404008" energy=-43.249295812225114 stress="0.00262129651967 -0.0 -0.0 -0.0 0.0101040483239 -0.0 -0.0 -0.0 -1.97231688378e-05" free_energy=-44.58570405 pbc="T T T"
P        2.48520000       7.18665000       4.02569000       0.00000000       0.02841499      -0.01265058
P        0.82840000       7.18665000       2.53876000       0.00000000       0.02841499       0.01265058
P        0.82840000       9.33035000       1.83754000       0.00000000      -0.02841499      -0.01265058
P        2.48520000       9.33035000       0.35061000       0.00000000      -0.02841499       0.01265058
P        0.82840000       3.69135000       0.35061000       0.00000000      -0.02841499       0.01265058
P        2.48520000       3.69135000       1.83754000       0.00000000      -0.02841499      -0.01265058
P        0.82840000       1.54765000       4.02569000       0.00000000       0.02841499      -0.01265058
P        2.48520000       1.54765000       2.53876000      -0.00000000       0.02841499       0.01265058
8
Lattice="3.3136 0.0 0.0 0.0 11.478 0.0 0.0 0.0 4.3763" Properties=species:S:1:pos:R:3:forces:R:3 virial="-0.458057334257 0.0 0.0 0.0 -1.87359938891 0.0 0.0 0.0 0.0610785359897" energy=-43.25528288292681 stress="0.00275198747926 -0.0 -0.0 -0.0 0.0112564992934 -0.0 -0.0 -0.0 -0.000366957046038" free_energy=-44.54947267 pbc="T T T"
P        2.48520000       7.28665000       4.02569000      -0.00000000       0.04572520      -0.01786062
P        0.82840000       7.28665000       2.53876000       0.00000000       0.04572520       0.01786062
P        0.82840000       9.43035000       1.83754000       0.00000000      -0.04572520      -0.01786062
P        2.48520000       9.43035000       0.35061000      -0.00000000      -0.04572520       0.01786062
P        0.82840000       3.69135000       0.35061000       0.00000000      -0.04572520       0.01786062
P        2.48520000       3.69135000       1.83754000       0.00000000      -0.04572520      -0.01786062
P        0.82840000       1.54765000       4.02569000       0.00000000       0.04572520      -0.01786062
P        2.48520000       1.54765000       2.53876000       0.00000000       0.04572520       0.01786062
8
Lattice="3.3136 0.0 0.0 0.0 11.678 0.0 0.0 0.0 4.3763" Properties=species:S:1:pos:R:3:forces:R:3 virial="-0.396802642369 0.0 0.0 0.0 -1.99457663295 0.0 0.0 0.0 0.142082981671" energy=-43.264368394200744 stress="0.00234314366548 -0.0 -0.0 -0.0 0.0117780959696 -0.0 -0.0 -0.0 -0.000839008622738" free_energy=-44.51226365 pbc="T T T"
P        2.48520000       7.38665000       4.02569000       0.00000000       0.05030112      -0.02216644
P        0.82840000       7.38665000       2.53876000       0.00000000       0.05030112       0.02216644
P        0.82840000       9.53035000       1.83754000       0.00000000      -0.05030112      -0.02216644
P        2.48520000       9.53035000       0.35061000       0.00000000      -0.05030112       0.02216644
P        0.82840000       3.69135000       0.35061000       0.00000000      -0.05030112       0.02216644
P        2.48520000       3.69135000       1.83754000       0.00000000      -0.05030112      -0.02216644
P        0.82840000       1.54765000       4.02569000       0.00000000       0.05030112      -0.02216644
P        2.48520000       1.54765000       2.53876000       0.00000000       0.05030112       0.02216644
8
Lattice="3.3136 0.0 0.0 0.0 11.878 0.0 0.0 0.0 4.3763" Properties=species:S:1:pos:R:3:forces:R:3 virial="-0.358556891138 0.0 0.0 0.0 -2.0414597434 0.0 0.0 0.0 0.21720667064" energy=-43.26810554425424 stress="0.00208164939914 -0.0 -0.0 -0.0 0.0118519642301 -0.0 -0.0 -0.0 -0.00126102202078" free_energy=-44.47560704 pbc="T T T"
P        2.48520000       7.48665000       4.02569000       0.00000000       0.05487876      -0.02400942
P        0.82840000       7.48665000       2.53876000       0.00000000       0.05487876       0.02400942
P        0.82840000       9.63035000       1.83754000       0.00000000      -0.05487876      -0.02400942
P        2.48520000       9.63035000       0.35061000      -0.00000000      -0.05487876       0.02400942
P        0.82840000       3.69135000       0.35061000       0.00000000      -0.05487876       0.02400942
P        2.48520000       3.69135000       1.83754000      -0.00000000      -0.05487876      -0.02400942
P        0.82840000       1.54765000       4.02569000       0.00000000       0.05487876      -0.02400942
P        2.48520000       1.54765000       2.53876000       0.00000000       0.05487876       0.02400942
8
Lattice="3.3136 0.0 0.0 0.0 12.078 0.0 0.0 0.0 4.3763" Properties=species:S:1:pos:R:3:forces:R:3 virial="-0.288781070858 0.0 0.0 0.0 -2.04361860871 0.0 0.0 0.0 0.325675906459" energy=-43.26841428956633 stress="0.00164879449975 -0.0 -0.0 -0.0 0.0116680331977 -0.0 -0.0 -0.0 -0.00185944543275" free_energy=-44.43970238 pbc="T T T"
P        2.48520000       7.58665000       4.02569000       0.00000000       0.06037712      -0.03117296
P        0.82840000       7.58665000       2.53876000       0.00000000       0.06037712       0.03117296
P        0.82840000       9.73035000       1.83754000       0.00000000      -0.06037712      -0.03117296
P        2.48520000       9.73035000       0.35061000       0.00000000      -0.06037712       0.03117296
P        0.82840000       3.69135000       0.35061000       0.00000000      -0.06037712       0.03117296
P        2.48520000       3.69135000       1.83754000       0.00000000      -0.06037712      -0.03117296
P        0.82840000       1.54765000       4.02569000       0.00000000       0.06037712      -0.03117296
P        2.48520000       1.54765000       2.53876000       0.00000000       0.06037712       0.03117296
8
Lattice="3.3136 0.0 0.0 0.0 12.278 0.0 0.0 0.0 4.3763" Properties=species:S:1:pos:R:3:forces:R:3 virial="-0.3021521072 0.0 0.0 0.0 -2.08370658581 0.0 0.0 0.0 0.346682301164" energy=-43.26712182567137 stress="0.00169703512378 -0.0 -0.0 -0.0 0.011703122962 -0.0 -0.0 -0.0 -0.00194713863597" free_energy=-44.40594709 pbc="T T T"
P        2.48520000       7.68665000       4.02569000      -0.00000000       0.06642366      -0.02907080
P        0.82840000       7.68665000       2.53876000       0.00000000       0.06642366       0.02907080
P        0.82840000       9.83035000       1.83754000       0.00000000      -0.06642366      -0.02907080
P        2.48520000       9.83035000       0.35061000      -0.00000000      -0.06642366       0.02907080
P        0.82840000       3.69135000       0.35061000       0.00000000      -0.06642366       0.02907080
P        2.48520000       3.69135000       1.83754000      -0.00000000      -0.06642366      -0.02907080
P        0.82840000       1.54765000       4.02569000       0.00000000       0.06642366      -0.02907080
P        2.48520000       1.54765000       2.53876000      -0.00000000       0.06642366       0.02907080
8
Lattice="3.3136 0.0 0.0 0.0 12.478 0.0 0.0 0.0 4.3763" Properties=species:S:1:pos:R:3:forces:R:3 virial="-0.269082593358 0.0 0.0 0.0 -2.06040698772 0.0 0.0 0.0 0.39676513899" energy=-43.264496683333405 stress="0.0014870769983 -0.0 -0.0 -0.0 0.0113867783134 -0.0 -0.0 -0.0 -0.00219271081252" free_energy=-44.37419825 pbc="T T T"
P        2.48520000       7.78665000       4.02569000       0.00000000       0.06899957      -0.03011774
P        0.82840000       7.78665000       2.53876000       0.00000000       0.06899957       0.03011774
P        0.82840000       9.93035000       1.83754000       0.00000000      -0.06899957      -0.03011774
P        2.48520000       9.93035000       0.35061000      -0.00000000      -0.06899957       0.03011774
P        0.82840000       3.69135000       0.35061000       0.00000000      -0.06899957       0.03011774
P        2.48520000       3.69135000       1.83754000       0.00000000      -0.06899957      -0.03011774
P        0.82840000       1.54765000       4.02569000       0.00000000       0.06899957      -0.03011774
P        2.48520000       1.54765000       2.53876000       0.00000000       0.06899957       0.03011774
8
Lattice="3.3136 0.0 0.0 0.0 12.678 0.0 0.0 0.0 4.3763" Properties=species:S:1:pos:R:3:forces:R:3 virial="-0.236387923605 0.0 0.0 0.0 -2.00528631214 0.0 0.0 0.0 0.443617071807" energy=-43.261450675024086 stress="0.00128578208748 -0.0 -0.0 -0.0 0.0109073305484 -0.0 -0.0 -0.0 -0.00241296118656" free_energy=-44.34492775 pbc="T T T"
P        2.48520000       7.88665000       4.02569000       0.00000000       0.07651734      -0.03157039
P        0.82840000       7.88665000       2.53876000       0.00000000       0.07651734       0.03157039
P        0.82840000      10.03035000       1.83754000       0.00000000      -0.07651734      -0.03157039
P        2.48520000      10.03035000       0.35061000      -0.00000000      -0.07651734       0.03157039